 argument  1 = nwchem.nwi
                                         
                                         


             Northwest Computational Chemistry Package (NWChem) 7.2.3
             --------------------------------------------------------


                    Environmental Molecular Sciences Laboratory
                       Pacific Northwest National Laboratory
                                Richland, WA 99352

                              Copyright (c) 1994-2022
                       Pacific Northwest National Laboratory
                            Battelle Memorial Institute

             NWChem is an open-source computational chemistry package
                        distributed under the terms of the
                      Educational Community License (ECL) 2.0
             A copy of the license is included with this distribution
                              in the LICENSE.TXT file

                                  ACKNOWLEDGMENT
                                  --------------

            This software and its documentation were developed at the
            EMSL at Pacific Northwest National Laboratory, a multiprogram
            national laboratory, operated for the U.S. Department of Energy
            by Battelle under Contract Number DE-AC05-76RL01830. Support
            for this work was provided by the Department of Energy Office
            of Biological and Environmental Research, Office of Basic
            Energy Sciences, and the Office of Advanced Scientific Computing.


           Job information
           ---------------

    hostname        = clswl063.cels.anl.gov
    program         = nwchem
    date            = Mon May 12 16:00:01 2025

    compiled        = Thu_Oct_31_11:31:06_2024
    source          = /Users/runner/miniforge3/conda-bld/nwchem_1730367321639/work
    nwchem branch   = 7.2.3
    nwchem revision = d690e065
    ga revision     = 5.8.0
    use scalapack   = T
    input           = nwchem.nwi
    prefix          = nwchem.
    data base       = /Users/tpham2/work/projects/CompChemAgent/evaluations/data/evaluations/claude-3.5-haiku/Exp3_from_name_to_opt/nwchem/nwchem.db
    status          = startup
    nproc           =        1
    time left       =     -1s



           Memory information
           ------------------

    heap     =   26214396 doubles =    200.0 Mbytes
    stack    =   26214401 doubles =    200.0 Mbytes
    global   =   52428800 doubles =    400.0 Mbytes (distinct from heap & stack)
    total    =  104857597 doubles =    800.0 Mbytes
    verify   = yes
    hardfail = no 


           Directory information
           ---------------------

  0 permanent = /Users/tpham2/work/projects/CompChemAgent/evaluations/data/evaluations/claude-3.5-haiku/Exp3_from_name_to_opt/nwchem
  0 scratch   = /Users/tpham2/work/projects/CompChemAgent/evaluations/data/evaluations/claude-3.5-haiku/Exp3_from_name_to_opt/nwchem




                                NWChem Input Module
                                -------------------


                                      nwchem
                                      ------

 Scaling coordinates for geometry "geometry" by  1.889725989
 (inverse scale =  0.529177249)



                             Geometry "geometry" -> ""
                             -------------------------

 Output coordinates in angstroms (scale by  1.889725989 to convert to a.u.)

  No.       Tag          Charge          X              Y              Z
 ---- ---------------- ---------- -------------- -------------- --------------
    1 C                    6.0000    -0.58154345    -0.00994946     0.00774973
    2 N                    7.0000     0.86967322     0.03690432    -0.46335876
    3 H                    1.0000    -0.71941665    -0.06613839     1.11366857
    4 H                    1.0000    -1.07001019    -0.89598293    -0.44639712
    5 H                    1.0000    -1.09956208     0.89953452    -0.35885409
    6 H                    1.0000     1.31396496    -0.80457239     0.03349844
    7 H                    1.0000     1.28689500     0.84020163     0.11368822

      Atomic Mass 
      ----------- 

      C                 12.000000
      N                 14.003070
      H                  1.007825


 Effective nuclear repulsion energy (a.u.)      40.6474277131

            Nuclear Dipole moment (a.u.) 
            ----------------------------
        X                 Y               Z
 ---------------- ---------------- ----------------
     4.3658772084     0.3244204878    -5.1805116426


            XYZ format geometry
            -------------------
     7
 geometry
 C                    -0.58154345    -0.00994946     0.00774973
 N                     0.86967322     0.03690432    -0.46335876
 H                    -0.71941665    -0.06613839     1.11366857
 H                    -1.07001019    -0.89598293    -0.44639712
 H                    -1.09956208     0.89953452    -0.35885409
 H                     1.31396496    -0.80457239     0.03349844
 H                     1.28689500     0.84020163     0.11368822

 ==============================================================================
                                internuclear distances
 ------------------------------------------------------------------------------
       center one      |      center two      | atomic units |  angstroms
 ------------------------------------------------------------------------------
    2 N                |   1 C                |     2.88465  |     1.52649
    3 H                |   1 C                |     2.10874  |     1.11590
    4 H                |   1 C                |     2.09573  |     1.10901
    5 H                |   1 C                |     2.09572  |     1.10901
    6 H                |   2 N                |     2.02857  |     1.07347
    7 H                |   2 N                |     2.02857  |     1.07347
 ------------------------------------------------------------------------------
                         number of included internuclear distances:          6
 ==============================================================================



 ==============================================================================
                                 internuclear angles
 ------------------------------------------------------------------------------
        center 1       |       center 2       |       center 3       |  degrees
 ------------------------------------------------------------------------------
    2 N                |   1 C                |   3 H                |   115.14
    2 N                |   1 C                |   4 H                |   108.47
    2 N                |   1 C                |   5 H                |   108.47
    3 H                |   1 C                |   4 H                |   108.13
    3 H                |   1 C                |   5 H                |   108.13
    4 H                |   1 C                |   5 H                |   108.31
    1 C                |   2 N                |   6 H                |   103.10
    1 C                |   2 N                |   7 H                |   103.10
    6 H                |   2 N                |   7 H                |   100.19
 ------------------------------------------------------------------------------
                            number of included internuclear angles:          9
 ==============================================================================



  library name resolved from: environment
  library file name is: </opt/anaconda3/envs/cca_env/share/nwchem/libraries/>
  
  pbe96 is a nonlocal functional; adding pw91lda local functional. 

                                 NWChem DFT Module
                                 -----------------


                                      nwchem




 Summary of "ao basis" -> "ao basis" (cartesian)
 ------------------------------------------------------------------------------
       Tag                 Description            Shells   Functions and Types
 ---------------- ------------------------------  ------  ---------------------
 C                           sto-3g                  3        5   2s1p
 N                           sto-3g                  3        5   2s1p
 H                           sto-3g                  1        1   1s


  Caching 1-el integrals 

            General Information
            -------------------
          SCF calculation type: DFT
          Wavefunction type:  closed shell.
          No. of atoms     :     7
          No. of electrons :    18
           Alpha electrons :     9
            Beta electrons :     9
          Charge           :     0
          Spin multiplicity:     1
          Use of symmetry is: off; symmetry adaption is: off
          Maximum number of iterations:  50
          AO basis - number of functions:    15
                     number of shells:    11
          Convergence on energy requested:  1.00D-06
          Convergence on density requested:  1.00D-05
          Convergence on gradient requested:  5.00D-04

              XC Information
              --------------
          PerdewBurkeErnzerhof Exchange Functional  1.000          
            Perdew 1991 LDA Correlation Functional  1.000 local    
           PerdewBurkeErnz. Correlation Functional  1.000 non-local

             Grid Information
             ----------------
          Grid used for XC integration:  medium    
          Radial quadrature: Mura-Knowles        
          Angular quadrature: Lebedev. 
          Tag              B.-S. Rad. Rad. Pts. Rad. Cut. Ang. Pts.
          ---              ---------- --------- --------- ---------
          C                   0.70       49           7.0       434
          N                   0.65       49           7.0       434
          H                   0.35       45           8.0       434
          Grid pruning is: on 
          Number of quadrature shells:   323
          Spatial weights used:  Erf1

          Convergence Information
          -----------------------
          Convergence aids based upon iterative change in 
          total energy or number of iterations. 
          Levelshifting, if invoked, occurs when the 
          HOMO/LUMO gap drops below (HL_TOL):  1.00D-02
          DIIS, if invoked, will attempt to extrapolate 
          using up to (NFOCK): 10 stored Fock matrices.

                    Damping( 0%)  Levelshifting(0.5)       DIIS
                  --------------- ------------------- ---------------
          dE  on:    start            ASAP                start   
          dE off:    2 iters         50 iters            50 iters 


      Screening Tolerance Information
      -------------------------------
          Density screening/tol_rho:  1.00D-10
          AO Gaussian exp screening on grid/accAOfunc:  14
          CD Gaussian exp screening on grid/accCDfunc:  20
          XC Gaussian exp screening on grid/accXCfunc:  20
          Schwarz screening/accCoul:  1.00D-08


      Superposition of Atomic Density Guess
      -------------------------------------

 Sum of atomic energies:         -93.12736645

      Non-variational initial energy
      ------------------------------

 Total energy =     -93.246961
 1-e energy   =    -207.399701
 2-e energy   =      73.505312
 HOMO         =      -0.182057
 LUMO         =       0.511550

  WARNING: movecs_in_org=atomic not equal to movecs_in=/Users/tpham2/work/projects/CompChemAgent/evaluations/data/evaluations/claude-3.5-haiku/Exp3_from_name_to_opt/nwchem/nwchem.movecs
   Time after variat. SCF:      0.0
   Time prior to 1st pass:      0.0

 Grid_pts file          = /Users/tpham2/work/projects/CompChemAgent/evaluations/data/evaluations/claude-3.5-haiku/Exp3_from_name_to_opt/nwchem/nwchem.gridpts.0
 Record size in doubles =  12289        No. of grid_pts per rec  =   3070
 Max. records in memory =     52        Max. recs in file   = *********


           Memory utilization after 1st SCF pass: 
           Heap Space remaining (MW):        0.00                  62
          Stack Space remaining (MW):       26.21            26214116

   convergence    iter        energy       DeltaE   RMS-Dens  Diis-err    time
 ---------------- ----- ----------------- --------- --------- ---------  ------
 d= 0,ls=0.0,diis     1    -94.4813311600 -1.35D+02  5.03D-02  1.88D-01     0.3
 d= 0,ls=0.0,diis     2    -94.4704844073  1.08D-02  3.25D-02  2.48D-01     0.4
 d= 0,ls=0.0,diis     3    -94.5069194188 -3.64D-02  4.27D-03  4.10D-03     0.4
 d= 0,ls=0.0,diis     4    -94.5075310600 -6.12D-04  7.21D-04  8.97D-05     0.5
 d= 0,ls=0.0,diis     5    -94.5075453036 -1.42D-05  1.61D-04  4.16D-06     0.6
 d= 0,ls=0.0,diis     6    -94.5075460574 -7.54D-07  1.64D-05  1.80D-08     0.7
 d= 0,ls=0.0,diis     7    -94.5075460623 -4.92D-09  8.89D-07  6.39D-11     0.8


         Total DFT energy =      -94.507546062335
      One electron energy =     -207.956077757871
           Coulomb energy =       86.854371233220
    Exchange-Corr. energy =      -14.053267250755
 Nuclear repulsion energy =       40.647427713070

 Numeric. integr. density =       18.000001256888

     Total iterative time =      0.7s



                       DFT Final Molecular Orbital Analysis
                       ------------------------------------

 Vector    1  Occ=2.000000D+00  E=-1.377015D+01
              MO Center=  8.7D-01,  3.7D-02, -4.6D-01, r^2= 2.0D-02
   Bfn.  Coefficient  Atom+Function         Bfn.  Coefficient  Atom+Function  
  ----- ------------  ---------------      ----- ------------  ---------------
     6      0.992298  2 N  s                  7      0.036005  2 N  s          

 Vector    2  Occ=2.000000D+00  E=-9.730722D+00
              MO Center= -5.8D-01, -1.0D-02,  7.7D-03, r^2= 2.8D-02
   Bfn.  Coefficient  Atom+Function         Bfn.  Coefficient  Atom+Function  
  ----- ------------  ---------------      ----- ------------  ---------------
     1      0.990090  1 C  s                  2      0.046084  1 C  s          

 Vector    3  Occ=2.000000D+00  E=-7.404850D-01
              MO Center=  6.3D-01,  1.8D-02, -1.6D-01, r^2= 9.7D-01
   Bfn.  Coefficient  Atom+Function         Bfn.  Coefficient  Atom+Function  
  ----- ------------  ---------------      ----- ------------  ---------------
     7      0.664580  2 N  s                  2      0.282257  1 C  s          
     6     -0.199061  2 N  s                 10      0.179995  2 N  pz         
    14      0.139513  6 H  s                 15      0.139513  7 H  s          
     1     -0.108558  1 C  s                  3      0.085283  1 C  px         
    11      0.051827  3 H  s                 12      0.049126  4 H  s          

 Vector    4  Occ=2.000000D+00  E=-5.503646D-01
              MO Center= -4.0D-01, -6.7D-03,  1.6D-03, r^2= 1.7D+00
   Bfn.  Coefficient  Atom+Function         Bfn.  Coefficient  Atom+Function  
  ----- ------------  ---------------      ----- ------------  ---------------
     2      0.591378  1 C  s                  7     -0.323247  2 N  s          
     1     -0.196633  1 C  s                 12      0.191952  4 H  s          
    13      0.191953  5 H  s                 11      0.189708  3 H  s          
     8     -0.155589  2 N  px                14     -0.129651  6 H  s          
    15     -0.129652  7 H  s                  3     -0.120082  1 C  px         

 Vector    5  Occ=2.000000D+00  E=-3.716128D-01
              MO Center=  3.2D-01,  1.5D-02, -2.0D-01, r^2= 1.8D+00
   Bfn.  Coefficient  Atom+Function         Bfn.  Coefficient  Atom+Function  
  ----- ------------  ---------------      ----- ------------  ---------------
     9      0.459503  2 N  py                 4      0.380051  1 C  py         
    14     -0.307997  6 H  s                 15      0.307998  7 H  s          
    12     -0.222580  4 H  s                 13      0.222580  5 H  s          

 Vector    6  Occ=2.000000D+00  E=-3.363761D-01
              MO Center= -3.3D-01, -1.6D-02,  2.2D-01, r^2= 1.5D+00
   Bfn.  Coefficient  Atom+Function         Bfn.  Coefficient  Atom+Function  
  ----- ------------  ---------------      ----- ------------  ---------------
     5      0.527168  1 C  pz                11      0.444392  3 H  s          
     8      0.288149  2 N  px                 7     -0.146928  2 N  s          
    10      0.147367  2 N  pz                14      0.122338  6 H  s          
    15      0.122337  7 H  s                 12     -0.121013  4 H  s          
    13     -0.121013  5 H  s                  3     -0.107903  1 C  px         

 Vector    7  Occ=2.000000D+00  E=-2.905175D-01
              MO Center= -3.4D-02,  7.9D-03, -1.7D-01, r^2= 1.7D+00
   Bfn.  Coefficient  Atom+Function         Bfn.  Coefficient  Atom+Function  
  ----- ------------  ---------------      ----- ------------  ---------------
     3      0.513688  1 C  px                 8     -0.488821  2 N  px         
    12     -0.246824  4 H  s                 13     -0.246822  5 H  s          
     5      0.186254  1 C  pz                14     -0.185294  6 H  s          
    15     -0.185293  7 H  s                 11      0.153840  3 H  s          
     2      0.092031  1 C  s                 10      0.032042  2 N  pz         

 Vector    8  Occ=2.000000D+00  E=-2.736352D-01
              MO Center= -7.6D-02,  8.6D-03, -2.0D-01, r^2= 2.1D+00
   Bfn.  Coefficient  Atom+Function         Bfn.  Coefficient  Atom+Function  
  ----- ------------  ---------------      ----- ------------  ---------------
     4      0.446076  1 C  py                 9     -0.384859  2 N  py         
    12     -0.360627  4 H  s                 13      0.360628  5 H  s          
    14      0.315203  6 H  s                 15     -0.315203  7 H  s          

 Vector    9  Occ=2.000000D+00  E=-9.323067D-02
              MO Center=  7.8D-01,  4.1D-02, -5.7D-01, r^2= 9.8D-01
   Bfn.  Coefficient  Atom+Function         Bfn.  Coefficient  Atom+Function  
  ----- ------------  ---------------      ----- ------------  ---------------
    10      0.794139  2 N  pz                 7     -0.560918  2 N  s          
    11     -0.239319  3 H  s                 14      0.169718  6 H  s          
    15      0.169718  7 H  s                  3      0.123112  1 C  px         
     6      0.116865  2 N  s                  5     -0.099249  1 C  pz         
     8     -0.094703  2 N  px                 2      0.081377  1 C  s          

 Vector   10  Occ=0.000000D+00  E= 2.843348D-01
              MO Center=  4.5D-01,  9.6D-03, -4.4D-02, r^2= 1.4D+00
   Bfn.  Coefficient  Atom+Function         Bfn.  Coefficient  Atom+Function  
  ----- ------------  ---------------      ----- ------------  ---------------
     7      0.996543  2 N  s                  3     -0.759376  1 C  px         
    10      0.592770  2 N  pz                14     -0.523785  6 H  s          
    15     -0.523780  7 H  s                  8     -0.319601  2 N  px         
     2     -0.314381  1 C  s                  5      0.214918  1 C  pz         
     6     -0.159192  2 N  s                 11     -0.071472  3 H  s          

 Vector   11  Occ=0.000000D+00  E= 3.174028D-01
              MO Center=  6.3D-01,  1.1D-02, -6.6D-03, r^2= 1.6D+00
   Bfn.  Coefficient  Atom+Function         Bfn.  Coefficient  Atom+Function  
  ----- ------------  ---------------      ----- ------------  ---------------
     8      0.851033  2 N  px                14     -0.568746  6 H  s          
    15     -0.568722  7 H  s                  3      0.535262  1 C  px         
     2      0.513659  1 C  s                 11     -0.466796  3 H  s          
     7      0.303678  2 N  s                  5      0.261347  1 C  pz         
    10      0.202895  2 N  pz                12      0.110674  4 H  s          

 Vector   12  Occ=0.000000D+00  E= 3.312704D-01
              MO Center=  7.3D-01,  2.0D-02, -1.7D-01, r^2= 1.8D+00
   Bfn.  Coefficient  Atom+Function         Bfn.  Coefficient  Atom+Function  
  ----- ------------  ---------------      ----- ------------  ---------------
     9      0.855707  2 N  py                14      0.743364  6 H  s          
    15     -0.743386  7 H  s                  4      0.433602  1 C  py         
    12      0.386793  4 H  s                 13     -0.386787  5 H  s          
    10      0.041725  2 N  pz         

 Vector   13  Occ=0.000000D+00  E= 4.056979D-01
              MO Center= -4.1D-01, -2.4D-02,  3.5D-01, r^2= 1.5D+00
   Bfn.  Coefficient  Atom+Function         Bfn.  Coefficient  Atom+Function  
  ----- ------------  ---------------      ----- ------------  ---------------
     5      1.032150  1 C  pz                11     -1.002357  3 H  s          
     8     -0.380101  2 N  px                10     -0.284348  2 N  pz         
    12      0.281385  4 H  s                 13      0.281474  5 H  s          
    14      0.253312  6 H  s                 15      0.253275  7 H  s          
     2      0.115704  1 C  s                  7     -0.115257  2 N  s          

 Vector   14  Occ=0.000000D+00  E= 4.070783D-01
              MO Center= -4.5D-01,  2.2D-03, -2.0D-01, r^2= 1.7D+00
   Bfn.  Coefficient  Atom+Function         Bfn.  Coefficient  Atom+Function  
  ----- ------------  ---------------      ----- ------------  ---------------
     4      0.995568  1 C  py                12      0.754923  4 H  s          
    13     -0.754838  5 H  s                  9     -0.520311  2 N  py         
    14     -0.323981  6 H  s                 15      0.324007  7 H  s          
     5      0.048605  1 C  pz                10     -0.025382  2 N  pz         

 Vector   15  Occ=0.000000D+00  E= 4.180207D-01
              MO Center= -9.6D-01, -8.9D-03, -1.4D-01, r^2= 1.4D+00
   Bfn.  Coefficient  Atom+Function         Bfn.  Coefficient  Atom+Function  
  ----- ------------  ---------------      ----- ------------  ---------------
     2      1.365209  1 C  s                 12     -0.833337  4 H  s          
    13     -0.833386  5 H  s                  3     -0.494900  1 C  px         
    11     -0.495030  3 H  s                  1     -0.223020  1 C  s          
     7     -0.179989  2 N  s                  5     -0.140992  1 C  pz         
    14      0.099788  6 H  s                 15      0.099806  7 H  s          


 center of mass
 --------------
 x =   0.29885206 y =   0.02253703 z =  -0.36137719

 moments of inertia (a.u.)
 ------------------
          23.124071568158          -1.792322972318          16.050883114395
          -1.792322972318          84.429570938120           0.346182450380
          16.050883114395           0.346182450380          82.793868735594

     Multipole analysis of the density
     ---------------------------------

     L   x y z        total         alpha         beta         nuclear
     -   - - -        -----         -----         ----         -------
     0   0 0 0     -0.000000     -9.000000     -9.000000     18.000000

     1   1 0 0     -0.047676     -2.206777     -2.206777      4.365877
     1   0 1 0     -0.033262     -0.178841     -0.178841      0.324420
     1   0 0 1      0.666137      2.923324      2.923324     -5.180512

     2   2 0 0     -9.310176    -28.898328    -28.898328     48.486479
     2   1 1 0     -0.076515     -0.575075     -0.575075      1.073635
     2   1 0 1      1.451339      5.343904      5.343904     -9.236469
     2   0 2 0     -8.967697     -9.804243     -9.804243     10.640790
     2   0 1 1      0.122945      0.147333      0.147333     -0.171721
     2   0 0 2    -10.992201    -11.005577    -11.005577     11.018952


            General Information
            -------------------
          SCF calculation type: DFT
          Wavefunction type:  closed shell.
          No. of atoms     :     7
          No. of electrons :    18
           Alpha electrons :     9
            Beta electrons :     9
          Charge           :     0
          Spin multiplicity:     1
          Use of symmetry is: off; symmetry adaption is: off
          Maximum number of iterations:  50
          AO basis - number of functions:    15
                     number of shells:    11
          Convergence on energy requested:  1.00D-06
          Convergence on density requested:  1.00D-05
          Convergence on gradient requested:  5.00D-04

              XC Information
              --------------
          PerdewBurkeErnzerhof Exchange Functional  1.000          
            Perdew 1991 LDA Correlation Functional  1.000 local    
           PerdewBurkeErnz. Correlation Functional  1.000 non-local

             Grid Information
             ----------------
          Grid used for XC integration:  medium    
          Radial quadrature: Mura-Knowles        
          Angular quadrature: Lebedev. 
          Tag              B.-S. Rad. Rad. Pts. Rad. Cut. Ang. Pts.
          ---              ---------- --------- --------- ---------
          C                   0.70       49           7.0       434
          N                   0.65       49           7.0       434
          H                   0.35       45           8.0       434
          Grid pruning is: on 
          Number of quadrature shells:   323
          Spatial weights used:  Erf1

          Convergence Information
          -----------------------
          Convergence aids based upon iterative change in 
          total energy or number of iterations. 
          Levelshifting, if invoked, occurs when the 
          HOMO/LUMO gap drops below (HL_TOL):  1.00D-02
          DIIS, if invoked, will attempt to extrapolate 
          using up to (NFOCK): 10 stored Fock matrices.

                    Damping( 0%)  Levelshifting(0.5)       DIIS
                  --------------- ------------------- ---------------
          dE  on:    start            ASAP                start   
          dE off:    2 iters         50 iters            50 iters 


      Screening Tolerance Information
      -------------------------------
          Density screening/tol_rho:  1.00D-10
          AO Gaussian exp screening on grid/accAOfunc:  14
          CD Gaussian exp screening on grid/accCDfunc:  20
          XC Gaussian exp screening on grid/accXCfunc:  20
          Schwarz screening/accCoul:  1.00D-08



                            NWChem DFT Gradient Module
                            --------------------------


                                      nwchem



  charge          =   0.00
  wavefunction    = closed shell



                         DFT ENERGY GRADIENTS

    atom               coordinates                        gradient
                 x          y          z           x          y          z
   1 C      -1.098958  -0.018802   0.014645   -0.000117   0.000002  -0.000081
   2 N       1.643444   0.069739  -0.875621    0.000006   0.000003  -0.000046
   3 H      -1.359500  -0.124983   2.104528    0.000160   0.000007  -0.000081
   4 H      -2.022026  -1.693162  -0.843568   -0.000018  -0.000157   0.000021
   5 H      -2.077871   1.699874  -0.678136   -0.000023   0.000153   0.000037
   6 H       2.483034  -1.520421   0.063303   -0.000005   0.000031   0.000077
   7 H       2.431879   1.587751   0.214840   -0.000004  -0.000039   0.000073

                 ----------------------------------------
                 |  Time  |  1-e(secs)   |  2-e(secs)   |
                 ----------------------------------------
                 |  CPU   |       0.00   |       0.05   |
                 ----------------------------------------
                 |  WALL  |       0.00   |       0.05   |
                 ----------------------------------------

 Task  times  cpu:        1.0s     wall:        1.0s
 Summary of allocated global arrays
-----------------------------------
  No active global arrays


MA_summarize_allocated_blocks: starting scan ...
MA_summarize_allocated_blocks: scan completed: 0 heap blocks, 0 stack blocks
MA usage statistics:

	allocation statistics:
					      heap	     stack
					      ----	     -----
	current number of blocks	         0	         0
	maximum number of blocks	        24	        58
	current total bytes		         0	         0
	maximum total bytes		 273558784	  22511080
	maximum total K-bytes		    273559	     22512
	maximum total M-bytes		       274	        23


                                NWChem Input Module
                                -------------------




                                     CITATION
                                     --------
                Please cite the following reference when publishing
                           results obtained with NWChem:

          E. Apra, E. J. Bylaska, W. A. de Jong, N. Govind, K. Kowalski,
       T. P. Straatsma, M. Valiev, H. J. J. van Dam, Y. Alexeev, J. Anchell,
       V. Anisimov, F. W. Aquino, R. Atta-Fynn, J. Autschbach, N. P. Bauman,
     J. C. Becca, D. E. Bernholdt, K. Bhaskaran-Nair, S. Bogatko, P. Borowski,
         J. Boschen, J. Brabec, A. Bruner, E. Cauet, Y. Chen, G. N. Chuev,
      C. J. Cramer, J. Daily, M. J. O. Deegan, T. H. Dunning Jr., M. Dupuis,
   K. G. Dyall, G. I. Fann, S. A. Fischer, A. Fonari, H. Fruchtl, L. Gagliardi,
      J. Garza, N. Gawande, S. Ghosh, K. Glaesemann, A. W. Gotz, J. Hammond,
       V. Helms, E. D. Hermes, K. Hirao, S. Hirata, M. Jacquelin, L. Jensen,
   B. G. Johnson, H. Jonsson, R. A. Kendall, M. Klemm, R. Kobayashi, V. Konkov,
      S. Krishnamoorthy, M. Krishnan, Z. Lin, R. D. Lins, R. J. Littlefield,
      A. J. Logsdail, K. Lopata, W. Ma, A. V. Marenich, J. Martin del Campo,
   D. Mejia-Rodriguez, J. E. Moore, J. M. Mullin, T. Nakajima, D. R. Nascimento,
    J. A. Nichols, P. J. Nichols, J. Nieplocha, A. Otero-de-la-Roza, B. Palmer,
    A. Panyala, T. Pirojsirikul, B. Peng, R. Peverati, J. Pittner, L. Pollack,
   R. M. Richard, P. Sadayappan, G. C. Schatz, W. A. Shelton, D. W. Silverstein,
   D. M. A. Smith, T. A. Soares, D. Song, M. Swart, H. L. Taylor, G. S. Thomas,
            V. Tipparaju, D. G. Truhlar, K. Tsemekhman, T. Van Voorhis,
      A. Vazquez-Mayagoitia, P. Verma, O. Villa, A. Vishnu, K. D. Vogiatzis,
        D. Wang, J. H. Weare, M. J. Williamson, T. L. Windus, K. Wolinski,
        A. T. Wong, Q. Wu, C. Yang, Q. Yu, M. Zacharias, Z. Zhang, Y. Zhao,
                                and R. J. Harrison
                        "NWChem: Past, present, and future
                         J. Chem. Phys. 152, 184102 (2020)
                               doi:10.1063/5.0004997

                                      AUTHORS
                                      -------
  E. Apra, E. J. Bylaska, N. Govind, K. Kowalski, M. Valiev, D. Mejia-Rodriguez,
       A. Kunitsa, N. P. Bauman, A. Panyala, W. A. de Jong, T. P. Straatsma,
   H. J. J. van Dam, D. Wang, T. L. Windus, J. Hammond, J. Autschbach, A. Woods,
    K. Bhaskaran-Nair, J. Brabec, K. Lopata, S. A. Fischer, S. Krishnamoorthy,
     M. Jacquelin, W. Ma, M. Klemm, O. Villa, Y. Chen, V. Anisimov, F. Aquino,
     S. Hirata, M. T. Hackler, E. Hermes, L. Jensen, J. E. Moore, J. C. Becca,
      V. Konjkov, T. Risthaus, M. Malagoli, A. Marenich, A. Otero-de-la-Roza,
        J. Mullin, P. Nichols, R. Peverati, J. Pittner, Y. Zhao, P.-D. Fan,
        A. Fonari, M. J. Williamson, R. J. Harrison, J. R. Rehr, M. Dupuis,
     D. Silverstein, D. M. A. Smith, J. Nieplocha, V. Tipparaju, M. Krishnan,
     B. E. Van Kuiken, A. Vazquez-Mayagoitia, M. Swart, Q. Wu, T. Van Voorhis,
     A. A. Auer, M. Nooijen, L. D. Crosby, E. Brown, G. Cisneros, G. I. Fann,
   H. Fruchtl, J. Garza, K. Hirao, R. A. Kendall, J. A. Nichols, K. Tsemekhman,
    K. Wolinski, J. Anchell, D. E. Bernholdt, P. Borowski, T. Clark, D. Clerc,
   H. Dachsel, M. J. O. Deegan, K. Dyall, D. Elwood, E. Glendening, M. Gutowski,
   A. C. Hess, J. Jaffe, B. G. Johnson, J. Ju, R. Kobayashi, R. Kutteh, Z. Lin,
   R. Littlefield, X. Long, B. Meng, T. Nakajima, S. Niu, L. Pollack, M. Rosing,
   K. Glaesemann, G. Sandrone, M. Stave, H. Taylor, G. Thomas, J. H. van Lenthe,
                               A. T. Wong, Z. Zhang.

 Total times  cpu:        1.1s     wall:        1.1s
