2
Properties=species:S:1:pos:R:3:forces:R:3 energy=-6.518489837646484 free_energy=-6.518489837646484 stress="0.0 0.0 0.0 0.0 0.0 0.0 0.0 0.0 4.26423651944674e-09" pbc="F F F"
H        0.00000000       0.00000000       0.37549460       0.00000000       0.00000000      -0.00039898
H        0.00000000       0.00000000      -0.37549460       0.00000000       0.00000000       0.00039898
