 argument  1 = nwchem.nwi
                                         
                                         


             Northwest Computational Chemistry Package (NWChem) 7.2.3
             --------------------------------------------------------


                    Environmental Molecular Sciences Laboratory
                       Pacific Northwest National Laboratory
                                Richland, WA 99352

                              Copyright (c) 1994-2022
                       Pacific Northwest National Laboratory
                            Battelle Memorial Institute

             NWChem is an open-source computational chemistry package
                        distributed under the terms of the
                      Educational Community License (ECL) 2.0
             A copy of the license is included with this distribution
                              in the LICENSE.TXT file

                                  ACKNOWLEDGMENT
                                  --------------

            This software and its documentation were developed at the
            EMSL at Pacific Northwest National Laboratory, a multiprogram
            national laboratory, operated for the U.S. Department of Energy
            by Battelle under Contract Number DE-AC05-76RL01830. Support
            for this work was provided by the Department of Energy Office
            of Biological and Environmental Research, Office of Basic
            Energy Sciences, and the Office of Advanced Scientific Computing.


           Job information
           ---------------

    hostname        = clswl063.cels.anl.gov
    program         = nwchem
    date            = Mon May 12 11:00:13 2025

    compiled        = Thu_Oct_31_11:31:06_2024
    source          = /Users/runner/miniforge3/conda-bld/nwchem_1730367321639/work
    nwchem branch   = 7.2.3
    nwchem revision = d690e065
    ga revision     = 5.8.0
    use scalapack   = T
    input           = nwchem.nwi
    prefix          = nwchem.
    data base       = /Users/tpham2/work/projects/CompChemAgent/evaluations/data/evaluations/gpt-4o-mini/Exp8_from_smiles_to_opt/nwchem/nwchem.db
    status          = startup
    nproc           =        1
    time left       =     -1s



           Memory information
           ------------------

    heap     =   26214396 doubles =    200.0 Mbytes
    stack    =   26214401 doubles =    200.0 Mbytes
    global   =   52428800 doubles =    400.0 Mbytes (distinct from heap & stack)
    total    =  104857597 doubles =    800.0 Mbytes
    verify   = yes
    hardfail = no 


           Directory information
           ---------------------

  0 permanent = /Users/tpham2/work/projects/CompChemAgent/evaluations/data/evaluations/gpt-4o-mini/Exp8_from_smiles_to_opt/nwchem
  0 scratch   = /Users/tpham2/work/projects/CompChemAgent/evaluations/data/evaluations/gpt-4o-mini/Exp8_from_smiles_to_opt/nwchem




                                NWChem Input Module
                                -------------------


                                      nwchem
                                      ------

 Scaling coordinates for geometry "geometry" by  1.889725989
 (inverse scale =  0.529177249)



                             Geometry "geometry" -> ""
                             -------------------------

 Output coordinates in angstroms (scale by  1.889725989 to convert to a.u.)

  No.       Tag          Charge          X              Y              Z
 ---- ---------------- ---------- -------------- -------------- --------------
    1 C                    6.0000    -0.58362205    -0.01005394     0.00919663
    2 N                    7.0000     0.86534746     0.03582583    -0.44270326
    3 H                    1.0000    -0.72386452    -0.06597990     1.10888527
    4 H                    1.0000    -1.06789677    -0.89108264    -0.44581135
    5 H                    1.0000    -1.09728609     0.89467392    -0.35874490
    6 H                    1.0000     1.31721500    -0.80485251     0.02445723
    7 H                    1.0000     1.29011773     0.84146716     0.10472218

      Atomic Mass 
      ----------- 

      C                 12.000000
      N                 14.003070
      H                  1.007825


 Effective nuclear repulsion energy (a.u.)      40.8605641868

            Nuclear Dipole moment (a.u.) 
            ----------------------------
        X                 Y               Z
 ---------------- ---------------- ----------------
     4.2972089737     0.3112060650    -4.9326281851


            XYZ format geometry
            -------------------
     7
 geometry
 C                    -0.58362205    -0.01005394     0.00919663
 N                     0.86534746     0.03582583    -0.44270326
 H                    -0.72386452    -0.06597990     1.10888527
 H                    -1.06789677    -0.89108264    -0.44581135
 H                    -1.09728609     0.89467392    -0.35874490
 H                     1.31721500    -0.80485251     0.02445723
 H                     1.29011773     0.84146716     0.10472218

 ==============================================================================
                                internuclear distances
 ------------------------------------------------------------------------------
       center one      |      center two      | atomic units |  angstroms
 ------------------------------------------------------------------------------
    2 N                |   1 C                |     2.86954  |     1.51850
    3 H                |   1 C                |     2.09761  |     1.11000
    4 H                |   1 C                |     2.08536  |     1.10352
    5 H                |   1 C                |     2.08536  |     1.10352
    6 H                |   2 N                |     2.00806  |     1.06262
    7 H                |   2 N                |     2.00806  |     1.06262
 ------------------------------------------------------------------------------
                         number of included internuclear distances:          6
 ==============================================================================



 ==============================================================================
                                 internuclear angles
 ------------------------------------------------------------------------------
        center 1       |       center 2       |       center 3       |  degrees
 ------------------------------------------------------------------------------
    2 N                |   1 C                |   3 H                |   114.64
    2 N                |   1 C                |   4 H                |   108.67
    2 N                |   1 C                |   5 H                |   108.67
    3 H                |   1 C                |   4 H                |   108.23
    3 H                |   1 C                |   5 H                |   108.23
    4 H                |   1 C                |   5 H                |   108.23
    1 C                |   2 N                |   6 H                |   104.54
    1 C                |   2 N                |   7 H                |   104.54
    6 H                |   2 N                |   7 H                |   101.73
 ------------------------------------------------------------------------------
                            number of included internuclear angles:          9
 ==============================================================================



  library name resolved from: environment
  library file name is: </opt/anaconda3/envs/cca_env/share/nwchem/libraries/>
  

                                 NWChem DFT Module
                                 -----------------


                                      nwchem




 Summary of "ao basis" -> "ao basis" (cartesian)
 ------------------------------------------------------------------------------
       Tag                 Description            Shells   Functions and Types
 ---------------- ------------------------------  ------  ---------------------
 C                           sto-3g                  3        5   2s1p
 N                           sto-3g                  3        5   2s1p
 H                           sto-3g                  1        1   1s


  Caching 1-el integrals 

            General Information
            -------------------
          SCF calculation type: DFT
          Wavefunction type:  closed shell.
          No. of atoms     :     7
          No. of electrons :    18
           Alpha electrons :     9
            Beta electrons :     9
          Charge           :     0
          Spin multiplicity:     1
          Use of symmetry is: off; symmetry adaption is: off
          Maximum number of iterations:  50
          AO basis - number of functions:    15
                     number of shells:    11
          Convergence on energy requested:  1.00D-06
          Convergence on density requested:  1.00D-05
          Convergence on gradient requested:  5.00D-04

              XC Information
              --------------
                         B3LYP Method XC Potential
                     Hartree-Fock (Exact) Exchange  0.200          
                        Slater Exchange Functional  0.800 local    
                    Becke 1988 Exchange Functional  0.720 non-local
              Lee-Yang-Parr Correlation Functional  0.810          
                  VWN I RPA Correlation Functional  0.190 local    

             Grid Information
             ----------------
          Grid used for XC integration:  medium    
          Radial quadrature: Mura-Knowles        
          Angular quadrature: Lebedev. 
          Tag              B.-S. Rad. Rad. Pts. Rad. Cut. Ang. Pts.
          ---              ---------- --------- --------- ---------
          C                   0.70       49           7.0       434
          N                   0.65       49           7.0       434
          H                   0.35       45           8.0       434
          Grid pruning is: on 
          Number of quadrature shells:   323
          Spatial weights used:  Erf1

          Convergence Information
          -----------------------
          Convergence aids based upon iterative change in 
          total energy or number of iterations. 
          Levelshifting, if invoked, occurs when the 
          HOMO/LUMO gap drops below (HL_TOL):  1.00D-02
          DIIS, if invoked, will attempt to extrapolate 
          using up to (NFOCK): 10 stored Fock matrices.

                    Damping( 0%)  Levelshifting(0.5)       DIIS
                  --------------- ------------------- ---------------
          dE  on:    start            ASAP                start   
          dE off:    2 iters         50 iters            50 iters 


      Screening Tolerance Information
      -------------------------------
          Density screening/tol_rho:  1.00D-10
          AO Gaussian exp screening on grid/accAOfunc:  14
          CD Gaussian exp screening on grid/accCDfunc:  20
          XC Gaussian exp screening on grid/accXCfunc:  20
          Schwarz screening/accCoul:  1.00D-08


      Superposition of Atomic Density Guess
      -------------------------------------

 Sum of atomic energies:         -93.12736645

      Non-variational initial energy
      ------------------------------

 Total energy =     -93.290566
 1-e energy   =    -207.799997
 2-e energy   =      73.648866
 HOMO         =      -0.176158
 LUMO         =       0.515172

  WARNING: movecs_in_org=atomic not equal to movecs_in=/Users/tpham2/work/projects/CompChemAgent/evaluations/data/evaluations/gpt-4o-mini/Exp8_from_smiles_to_opt/nwchem/nwchem.movecs
   Time after variat. SCF:      0.0
   Time prior to 1st pass:      0.0

 Grid_pts file          = /Users/tpham2/work/projects/CompChemAgent/evaluations/data/evaluations/gpt-4o-mini/Exp8_from_smiles_to_opt/nwchem/nwchem.gridpts.0
 Record size in doubles =  12289        No. of grid_pts per rec  =   3070
 Max. records in memory =     52        Max. recs in file   = *********


           Memory utilization after 1st SCF pass: 
           Heap Space remaining (MW):        0.00                  62
          Stack Space remaining (MW):       26.21            26214116

   convergence    iter        energy       DeltaE   RMS-Dens  Diis-err    time
 ---------------- ----- ----------------- --------- --------- ---------  ------
 d= 0,ls=0.0,diis     1    -94.6142928948 -1.35D+02  4.01D-02  1.62D-01     0.1
 d= 0,ls=0.0,diis     2    -94.6213987098 -7.11D-03  2.18D-02  1.14D-01     0.2
 d= 0,ls=0.0,diis     3    -94.6381815277 -1.68D-02  2.39D-03  1.71D-03     0.2
 d= 0,ls=0.0,diis     4    -94.6384450398 -2.64D-04  2.32D-04  4.25D-06     0.3
 d= 0,ls=0.0,diis     5    -94.6384456542 -6.14D-07  7.65D-05  1.34D-06     0.3
 d= 0,ls=0.0,diis     6    -94.6384458700 -2.16D-07  7.50D-06  4.75D-09     0.4


         Total DFT energy =      -94.638445870026
      One electron energy =     -208.329153695547
           Coulomb energy =       87.025502843229
    Exchange-Corr. energy =      -14.195359204463
 Nuclear repulsion energy =       40.860564186755

 Numeric. integr. density =       18.000001884595

     Total iterative time =      0.4s



                       DFT Final Molecular Orbital Analysis
                       ------------------------------------

 Vector    1  Occ=2.000000D+00  E=-1.410723D+01
              MO Center=  8.7D-01,  3.6D-02, -4.4D-01, r^2= 2.0D-02
   Bfn.  Coefficient  Atom+Function         Bfn.  Coefficient  Atom+Function  
  ----- ------------  ---------------      ----- ------------  ---------------
     6      0.992509  2 N  s                  7      0.035161  2 N  s          

 Vector    2  Occ=2.000000D+00  E=-1.003026D+01
              MO Center= -5.8D-01, -1.0D-02,  9.2D-03, r^2= 2.8D-02
   Bfn.  Coefficient  Atom+Function         Bfn.  Coefficient  Atom+Function  
  ----- ------------  ---------------      ----- ------------  ---------------
     1      0.990463  1 C  s                  2      0.044431  1 C  s          

 Vector    3  Occ=2.000000D+00  E=-8.206571D-01
              MO Center=  6.2D-01,  1.8D-02, -1.6D-01, r^2= 9.8D-01
   Bfn.  Coefficient  Atom+Function         Bfn.  Coefficient  Atom+Function  
  ----- ------------  ---------------      ----- ------------  ---------------
     7      0.666280  2 N  s                  2      0.283459  1 C  s          
     6     -0.199648  2 N  s                 10      0.164905  2 N  pz         
    14      0.139257  6 H  s                 15      0.139257  7 H  s          
     1     -0.109161  1 C  s                  3      0.084129  1 C  px         
    11      0.053398  3 H  s                 12      0.050604  4 H  s          

 Vector    4  Occ=2.000000D+00  E=-6.206964D-01
              MO Center= -3.9D-01, -6.6D-03,  2.6D-03, r^2= 1.7D+00
   Bfn.  Coefficient  Atom+Function         Bfn.  Coefficient  Atom+Function  
  ----- ------------  ---------------      ----- ------------  ---------------
     2      0.584372  1 C  s                  7     -0.326266  2 N  s          
     1     -0.194978  1 C  s                 12      0.193041  4 H  s          
    13      0.193041  5 H  s                 11      0.190917  3 H  s          
     8     -0.157635  2 N  px                14     -0.131344  6 H  s          
    15     -0.131344  7 H  s                  3     -0.120226  1 C  px         

 Vector    5  Occ=2.000000D+00  E=-4.279064D-01
              MO Center=  3.2D-01,  1.5D-02, -2.0D-01, r^2= 1.8D+00
   Bfn.  Coefficient  Atom+Function         Bfn.  Coefficient  Atom+Function  
  ----- ------------  ---------------      ----- ------------  ---------------
     9      0.457502  2 N  py                 4      0.375813  1 C  py         
    14     -0.308800  6 H  s                 15      0.308799  7 H  s          
    12     -0.224123  4 H  s                 13      0.224125  5 H  s          

 Vector    6  Occ=2.000000D+00  E=-3.899661D-01
              MO Center= -3.7D-01, -1.7D-02,  2.3D-01, r^2= 1.4D+00
   Bfn.  Coefficient  Atom+Function         Bfn.  Coefficient  Atom+Function  
  ----- ------------  ---------------      ----- ------------  ---------------
     5      0.531081  1 C  pz                11      0.451422  3 H  s          
     8      0.260530  2 N  px                10      0.164161  2 N  pz         
     7     -0.147967  2 N  s                 12     -0.133442  4 H  s          
    13     -0.133440  5 H  s                 14      0.113810  6 H  s          
    15      0.113813  7 H  s                  3     -0.084677  1 C  px         

 Vector    7  Occ=2.000000D+00  E=-3.422310D-01
              MO Center=  5.8D-03,  9.0D-03, -1.8D-01, r^2= 1.6D+00
   Bfn.  Coefficient  Atom+Function         Bfn.  Coefficient  Atom+Function  
  ----- ------------  ---------------      ----- ------------  ---------------
     3      0.516061  1 C  px                 8     -0.501537  2 N  px         
    12     -0.239776  4 H  s                 13     -0.239779  5 H  s          
    14     -0.190820  6 H  s                 15     -0.190816  7 H  s          
     5      0.160710  1 C  pz                11      0.127775  3 H  s          
     2      0.090736  1 C  s                  7      0.033273  2 N  s          

 Vector    8  Occ=2.000000D+00  E=-3.258450D-01
              MO Center= -7.9D-02,  8.4D-03, -2.0D-01, r^2= 2.1D+00
   Bfn.  Coefficient  Atom+Function         Bfn.  Coefficient  Atom+Function  
  ----- ------------  ---------------      ----- ------------  ---------------
     4      0.447949  1 C  py                 9     -0.382583  2 N  py         
    12     -0.360249  4 H  s                 13      0.360246  5 H  s          
    14      0.313566  6 H  s                 15     -0.313568  7 H  s          

 Vector    9  Occ=2.000000D+00  E=-1.477921D-01
              MO Center=  7.7D-01,  3.9D-02, -5.4D-01, r^2= 9.8D-01
   Bfn.  Coefficient  Atom+Function         Bfn.  Coefficient  Atom+Function  
  ----- ------------  ---------------      ----- ------------  ---------------
    10      0.815869  2 N  pz                 7     -0.521451  2 N  s          
    11     -0.241613  3 H  s                 14      0.156446  6 H  s          
    15      0.156446  7 H  s                  5     -0.112391  1 C  pz         
     3      0.111670  1 C  px                 6      0.107737  2 N  s          
     8     -0.092721  2 N  px                12      0.082849  4 H  s          

 Vector   10  Occ=0.000000D+00  E= 3.353863D-01
              MO Center=  4.7D-01,  9.1D-03, -2.8D-02, r^2= 1.4D+00
   Bfn.  Coefficient  Atom+Function         Bfn.  Coefficient  Atom+Function  
  ----- ------------  ---------------      ----- ------------  ---------------
     7      1.038196  2 N  s                  3     -0.752129  1 C  px         
    10      0.569421  2 N  pz                14     -0.548957  6 H  s          
    15     -0.548952  7 H  s                  2     -0.287299  1 C  s          
     8     -0.282224  2 N  px                 5      0.228139  1 C  pz         
     6     -0.164774  2 N  s                 11     -0.103202  3 H  s          

 Vector   11  Occ=0.000000D+00  E= 3.750978D-01
              MO Center=  5.3D-01,  7.9D-03,  1.7D-02, r^2= 1.6D+00
   Bfn.  Coefficient  Atom+Function         Bfn.  Coefficient  Atom+Function  
  ----- ------------  ---------------      ----- ------------  ---------------
     8      0.851372  2 N  px                 3      0.570601  1 C  px         
    14     -0.541066  6 H  s                 15     -0.541059  7 H  s          
     2      0.510651  1 C  s                 11     -0.508289  3 H  s          
     5      0.314464  1 C  pz                 7      0.269085  2 N  s          
    10      0.156598  2 N  pz                12      0.142988  4 H  s          

 Vector   12  Occ=0.000000D+00  E= 3.856712D-01
              MO Center=  5.6D-01,  1.7D-02, -1.7D-01, r^2= 2.0D+00
   Bfn.  Coefficient  Atom+Function         Bfn.  Coefficient  Atom+Function  
  ----- ------------  ---------------      ----- ------------  ---------------
     9      0.806412  2 N  py                14      0.710113  6 H  s          
    15     -0.710120  7 H  s                  4      0.536497  1 C  py         
    12      0.465979  4 H  s                 13     -0.465978  5 H  s          
    10      0.039318  2 N  pz                 5      0.026160  1 C  pz         

 Vector   13  Occ=0.000000D+00  E= 4.577572D-01
              MO Center= -3.5D-01, -2.2D-02,  3.3D-01, r^2= 1.6D+00
   Bfn.  Coefficient  Atom+Function         Bfn.  Coefficient  Atom+Function  
  ----- ------------  ---------------      ----- ------------  ---------------
     5      1.017207  1 C  pz                11     -0.990903  3 H  s          
     8     -0.424032  2 N  px                14      0.294371  6 H  s          
    15      0.294431  7 H  s                 10     -0.291227  2 N  pz         
    12      0.262152  4 H  s                 13      0.262048  5 H  s          
     7     -0.156620  2 N  s                  2      0.118796  1 C  s          

 Vector   14  Occ=0.000000D+00  E= 4.625216D-01
              MO Center= -2.8D-01,  4.8D-03, -1.9D-01, r^2= 1.9D+00
   Bfn.  Coefficient  Atom+Function         Bfn.  Coefficient  Atom+Function  
  ----- ------------  ---------------      ----- ------------  ---------------
     4      0.949506  1 C  py                12      0.713728  4 H  s          
    13     -0.713724  5 H  s                  9     -0.614163  2 N  py         
    14     -0.407051  6 H  s                 15      0.407008  7 H  s          
     5      0.046222  1 C  pz                10     -0.029921  2 N  pz         

 Vector   15  Occ=0.000000D+00  E= 4.701604D-01
              MO Center= -9.6D-01, -8.3D-03, -1.5D-01, r^2= 1.4D+00
   Bfn.  Coefficient  Atom+Function         Bfn.  Coefficient  Atom+Function  
  ----- ------------  ---------------      ----- ------------  ---------------
     2      1.390255  1 C  s                 12     -0.839279  4 H  s          
    13     -0.839318  5 H  s                 11     -0.487601  3 H  s          
     3     -0.475901  1 C  px                 1     -0.225395  1 C  s          
     7     -0.186952  2 N  s                  5     -0.158960  1 C  pz         
     8      0.118186  2 N  px                14      0.089945  6 H  s          


 center of mass
 --------------
 x =   0.29403964 y =   0.02161395 z =  -0.34406802

 moments of inertia (a.u.)
 ------------------
          22.462677463350          -1.759405403907          15.402857434394
          -1.759405403907          83.691003369528           0.308645957154
          15.402857434394           0.308645957154          82.604165706866

     Multipole analysis of the density
     ---------------------------------

     L   x y z        total         alpha         beta         nuclear
     -   - - -        -----         -----         ----         -------
     0   0 0 0     -0.000000     -9.000000     -9.000000     18.000000

     1   1 0 0     -0.051040     -2.174124     -2.174124      4.297209
     1   0 1 0     -0.033065     -0.172136     -0.172136      0.311206
     1   0 0 1      0.660977      2.796803      2.796803     -4.932628

     2   2 0 0     -9.294191    -28.847040    -28.847040     48.399888
     2   1 1 0     -0.075552     -0.565005     -0.565005      1.054457
     2   1 0 1      1.434890      5.144647      5.144647     -8.854404
     2   0 2 0     -8.961555     -9.773574     -9.773574     10.585594
     2   0 1 1      0.123816      0.133346      0.133346     -0.142877
     2   0 0 2    -11.009503    -10.756087    -10.756087     10.502671


            General Information
            -------------------
          SCF calculation type: DFT
          Wavefunction type:  closed shell.
          No. of atoms     :     7
          No. of electrons :    18
           Alpha electrons :     9
            Beta electrons :     9
          Charge           :     0
          Spin multiplicity:     1
          Use of symmetry is: off; symmetry adaption is: off
          Maximum number of iterations:  50
          AO basis - number of functions:    15
                     number of shells:    11
          Convergence on energy requested:  1.00D-06
          Convergence on density requested:  1.00D-05
          Convergence on gradient requested:  5.00D-04

              XC Information
              --------------
                         B3LYP Method XC Potential
                     Hartree-Fock (Exact) Exchange  0.200          
                        Slater Exchange Functional  0.800 local    
                    Becke 1988 Exchange Functional  0.720 non-local
              Lee-Yang-Parr Correlation Functional  0.810          
                  VWN I RPA Correlation Functional  0.190 local    

             Grid Information
             ----------------
          Grid used for XC integration:  medium    
          Radial quadrature: Mura-Knowles        
          Angular quadrature: Lebedev. 
          Tag              B.-S. Rad. Rad. Pts. Rad. Cut. Ang. Pts.
          ---              ---------- --------- --------- ---------
          C                   0.70       49           7.0       434
          N                   0.65       49           7.0       434
          H                   0.35       45           8.0       434
          Grid pruning is: on 
          Number of quadrature shells:   323
          Spatial weights used:  Erf1

          Convergence Information
          -----------------------
          Convergence aids based upon iterative change in 
          total energy or number of iterations. 
          Levelshifting, if invoked, occurs when the 
          HOMO/LUMO gap drops below (HL_TOL):  1.00D-02
          DIIS, if invoked, will attempt to extrapolate 
          using up to (NFOCK): 10 stored Fock matrices.

                    Damping( 0%)  Levelshifting(0.5)       DIIS
                  --------------- ------------------- ---------------
          dE  on:    start            ASAP                start   
          dE off:    2 iters         50 iters            50 iters 


      Screening Tolerance Information
      -------------------------------
          Density screening/tol_rho:  1.00D-10
          AO Gaussian exp screening on grid/accAOfunc:  14
          CD Gaussian exp screening on grid/accCDfunc:  20
          XC Gaussian exp screening on grid/accXCfunc:  20
          Schwarz screening/accCoul:  1.00D-08



                            NWChem DFT Gradient Module
                            --------------------------


                                      nwchem



  charge          =   0.00
  wavefunction    = closed shell



                         DFT ENERGY GRADIENTS

    atom               coordinates                        gradient
                 x          y          z           x          y          z
   1 C      -1.102886  -0.018999   0.017379    0.000118   0.000005  -0.000040
   2 N       1.635270   0.067701  -0.836588    0.000120   0.000002   0.000001
   3 H      -1.367906  -0.124684   2.095489    0.000022  -0.000003   0.000066
   4 H      -2.018032  -1.683902  -0.842461   -0.000106   0.000053  -0.000023
   5 H      -2.073570   1.690689  -0.677930   -0.000104  -0.000055  -0.000028
   6 H       2.489175  -1.520951   0.046217   -0.000024  -0.000044   0.000010
   7 H       2.437969   1.590142   0.197896   -0.000026   0.000042   0.000014

                 ----------------------------------------
                 |  Time  |  1-e(secs)   |  2-e(secs)   |
                 ----------------------------------------
                 |  CPU   |       0.00   |       0.03   |
                 ----------------------------------------
                 |  WALL  |       0.00   |       0.03   |
                 ----------------------------------------

 Task  times  cpu:        0.5s     wall:        0.5s
 Summary of allocated global arrays
-----------------------------------
  No active global arrays


MA_summarize_allocated_blocks: starting scan ...
MA_summarize_allocated_blocks: scan completed: 0 heap blocks, 0 stack blocks
MA usage statistics:

	allocation statistics:
					      heap	     stack
					      ----	     -----
	current number of blocks	         0	         0
	maximum number of blocks	        24	        58
	current total bytes		         0	         0
	maximum total bytes		 273558784	  22511080
	maximum total K-bytes		    273559	     22512
	maximum total M-bytes		       274	        23


                                NWChem Input Module
                                -------------------




                                     CITATION
                                     --------
                Please cite the following reference when publishing
                           results obtained with NWChem:

          E. Apra, E. J. Bylaska, W. A. de Jong, N. Govind, K. Kowalski,
       T. P. Straatsma, M. Valiev, H. J. J. van Dam, Y. Alexeev, J. Anchell,
       V. Anisimov, F. W. Aquino, R. Atta-Fynn, J. Autschbach, N. P. Bauman,
     J. C. Becca, D. E. Bernholdt, K. Bhaskaran-Nair, S. Bogatko, P. Borowski,
         J. Boschen, J. Brabec, A. Bruner, E. Cauet, Y. Chen, G. N. Chuev,
      C. J. Cramer, J. Daily, M. J. O. Deegan, T. H. Dunning Jr., M. Dupuis,
   K. G. Dyall, G. I. Fann, S. A. Fischer, A. Fonari, H. Fruchtl, L. Gagliardi,
      J. Garza, N. Gawande, S. Ghosh, K. Glaesemann, A. W. Gotz, J. Hammond,
       V. Helms, E. D. Hermes, K. Hirao, S. Hirata, M. Jacquelin, L. Jensen,
   B. G. Johnson, H. Jonsson, R. A. Kendall, M. Klemm, R. Kobayashi, V. Konkov,
      S. Krishnamoorthy, M. Krishnan, Z. Lin, R. D. Lins, R. J. Littlefield,
      A. J. Logsdail, K. Lopata, W. Ma, A. V. Marenich, J. Martin del Campo,
   D. Mejia-Rodriguez, J. E. Moore, J. M. Mullin, T. Nakajima, D. R. Nascimento,
    J. A. Nichols, P. J. Nichols, J. Nieplocha, A. Otero-de-la-Roza, B. Palmer,
    A. Panyala, T. Pirojsirikul, B. Peng, R. Peverati, J. Pittner, L. Pollack,
   R. M. Richard, P. Sadayappan, G. C. Schatz, W. A. Shelton, D. W. Silverstein,
   D. M. A. Smith, T. A. Soares, D. Song, M. Swart, H. L. Taylor, G. S. Thomas,
            V. Tipparaju, D. G. Truhlar, K. Tsemekhman, T. Van Voorhis,
      A. Vazquez-Mayagoitia, P. Verma, O. Villa, A. Vishnu, K. D. Vogiatzis,
        D. Wang, J. H. Weare, M. J. Williamson, T. L. Windus, K. Wolinski,
        A. T. Wong, Q. Wu, C. Yang, Q. Yu, M. Zacharias, Z. Zhang, Y. Zhao,
                                and R. J. Harrison
                        "NWChem: Past, present, and future
                         J. Chem. Phys. 152, 184102 (2020)
                               doi:10.1063/5.0004997

                                      AUTHORS
                                      -------
  E. Apra, E. J. Bylaska, N. Govind, K. Kowalski, M. Valiev, D. Mejia-Rodriguez,
       A. Kunitsa, N. P. Bauman, A. Panyala, W. A. de Jong, T. P. Straatsma,
   H. J. J. van Dam, D. Wang, T. L. Windus, J. Hammond, J. Autschbach, A. Woods,
    K. Bhaskaran-Nair, J. Brabec, K. Lopata, S. A. Fischer, S. Krishnamoorthy,
     M. Jacquelin, W. Ma, M. Klemm, O. Villa, Y. Chen, V. Anisimov, F. Aquino,
     S. Hirata, M. T. Hackler, E. Hermes, L. Jensen, J. E. Moore, J. C. Becca,
      V. Konjkov, T. Risthaus, M. Malagoli, A. Marenich, A. Otero-de-la-Roza,
        J. Mullin, P. Nichols, R. Peverati, J. Pittner, Y. Zhao, P.-D. Fan,
        A. Fonari, M. J. Williamson, R. J. Harrison, J. R. Rehr, M. Dupuis,
     D. Silverstein, D. M. A. Smith, J. Nieplocha, V. Tipparaju, M. Krishnan,
     B. E. Van Kuiken, A. Vazquez-Mayagoitia, M. Swart, Q. Wu, T. Van Voorhis,
     A. A. Auer, M. Nooijen, L. D. Crosby, E. Brown, G. Cisneros, G. I. Fann,
   H. Fruchtl, J. Garza, K. Hirao, R. A. Kendall, J. A. Nichols, K. Tsemekhman,
    K. Wolinski, J. Anchell, D. E. Bernholdt, P. Borowski, T. Clark, D. Clerc,
   H. Dachsel, M. J. O. Deegan, K. Dyall, D. Elwood, E. Glendening, M. Gutowski,
   A. C. Hess, J. Jaffe, B. G. Johnson, J. Ju, R. Kobayashi, R. Kutteh, Z. Lin,
   R. Littlefield, X. Long, B. Meng, T. Nakajima, S. Niu, L. Pollack, M. Rosing,
   K. Glaesemann, G. Sandrone, M. Stave, H. Taylor, G. Thomas, J. H. van Lenthe,
                               A. T. Wong, Z. Zhang.

 Total times  cpu:        0.5s     wall:        0.5s
